18
	Energy:       7.1245417
C          0.73153        1.25730       -0.25107
C         -0.71735        1.26302        0.25789
C         -1.45167       -0.00264       -0.20817
C         -0.71757       -1.25786        0.28563
C          0.73131       -1.26359       -0.22333
C          1.46563        0.00207        0.24273
H          1.25899        2.16610        0.10999
H          0.73298        1.27319       -1.36345
H         -1.24465        2.16375       -0.12309
H         -0.71880        1.30339        1.36964
H         -1.49895       -0.01486       -1.31958
H         -2.49135        0.00176        0.18370
H         -1.24503       -2.16667       -0.07544
H         -0.71903       -1.27376        1.39800
H          0.73277       -1.30396       -1.33508
H          1.25862       -2.16432        0.15766
H          2.50531       -0.00233       -0.14914
H          1.51290        0.01430        1.35414
