18
	Energy:      44.8858556
C         -0.32082        1.71983       -1.98160
C         -1.01966        1.82472       -0.59845
C         -1.99863        0.65429       -0.30831
C         -1.49978       -0.61566       -0.98729
C         -1.51448       -0.42788       -2.52905
C         -1.24902        1.03522       -2.97779
H          0.58795        1.08179       -1.90566
H          0.00371        2.73002       -2.31049
H         -1.61448        2.76004       -0.51494
H         -0.20891        1.87240        0.16052
H         -2.99940        0.87351       -0.74320
H         -2.12612        0.54112        0.78937
H         -2.09190       -1.51609       -0.71788
H         -0.45830       -0.77754       -0.62974
H         -2.49630       -0.71651       -2.96301
H         -0.74859       -1.12224       -2.93756
H         -2.19850        1.61593       -2.97639
H         -0.85394        1.03863       -4.01599
